# LAMMPS data file written by OVITO Basic 3.4.3
60 atoms
1 atom types
0.0 28.5914 xlo xhi
0.0 28.5914 ylo yhi
0.0 28.5914 zlo zhi

Atoms  # atomic

1 1 13.8315758038 20.008690591 10.3642824301
2 1 12.8608262953 24.6599824301 7.6119741962
3 1 11.0792675699 20.9794258038 5.712990591
4 1 13.5244755764 21.352200477 10.6107402981
5 1 14.204350477 24.9064402981 7.9190744236
6 1 10.8328097019 20.6723255764 7.056500477
7 1 12.4681948948 24.3607591334 6.2452623891
8 1 13.3931123891 23.2710551052 4.2306408666
9 1 11.3784908666 22.3461376109 5.3203448948
10 1 13.7980380916 18.5398503031 5.1694537813
11 1 12.3173037813 21.9412119084 10.0515496969
12 1 11.3920003031 19.4651537813 7.6455119084
13 1 12.9422260111 19.1987534118 9.5485126053
14 1 12.0509034118 23.8442126053 8.5013239889
15 1 11.8950373947 20.0900760111 4.9030534118
16 1 13.7604118092 18.3053436403 8.7412630177
17 1 12.7022869823 20.9082618092 4.0096436403
18 1 11.1574936403 23.0369630177 7.6831381908
19 1 13.3832340604 18.0169421885 7.4230994078
20 1 14.0204505922 20.5310840604 3.7212421885
21 1 10.8690921885 21.7187994078 8.0603159396
22 1 13.4367142741 24.3214316627 5.2347279475
23 1 12.3825779475 22.3025357259 4.2699683373
24 1 11.4178183373 23.3566720525 6.2888642741
25 1 11.4597619211 21.1608668282 9.2662440088
26 1 14.0130168282 23.5619440088 9.9837880789
27 1 12.1773059912 18.6076119211 6.8651668282
28 1 11.7791707462 19.7666072072 9.0097076723
29 1 12.6187572072 23.3054076723 9.6643792538
30 1 12.4338423277 18.9270207462 5.4709072072
31 1 15.7305737047 18.2271175699 6.6837258038
32 1 17.5121324301 21.9076741962 8.5827237047
33 1 14.7598241962 22.8784237047 3.9314175699
34 1 14.387049523 17.9806597019 6.3766255764
35 1 17.7585902981 22.2147744236 7.239199523
36 1 15.0669244236 21.534899523 3.6849597019
37 1 16.1232051052 18.5263408666 8.0504376109
38 1 15.1982876109 19.6160448948 10.0650591334
39 1 17.2129091334 20.5409623891 8.9753551052
40 1 17.1993996969 23.4219462187 6.6501880916
41 1 14.7933619084 24.3472496969 9.1262462187
42 1 16.2740962187 20.9458880916 4.2441503031
43 1 16.5404965882 19.0428873947 5.7943760111
44 1 16.6963626053 22.7970239889 9.3926465882
45 1 15.6491739889 23.6883465882 4.7471873947
46 1 15.8891130177 21.9788381908 10.2860563597
47 1 17.4339063597 19.8501369823 6.6125618092
48 1 14.8309881908 24.5817563597 5.5544369823
49 1 14.5709494078 22.3560159396 10.5744578115
50 1 17.7223078115 21.1683005922 6.2353840604
51 1 15.2081659396 24.8701578115 6.8726005922
52 1 15.1546857259 18.5656683373 9.0609720525
53 1 16.2088220525 20.5845642741 10.0257316627
54 1 17.1735816627 19.5304279475 8.0068357259
55 1 14.5783831718 19.3251559912 4.3119119211
56 1 16.4140940088 24.2794880789 7.4305331718
57 1 17.1316380789 21.7262331718 5.0294559912
58 1 15.9726427928 19.5816923277 4.6313207462
59 1 16.1575576723 23.9600792538 8.8247927928
60 1 16.8122292538 23.1204927928 5.2859923277
