# LAMMPS data file written by OVITO Basic 3.4.3
60 atoms
1 atom types
-6.0 6.33 xlo xhi
-5.0 7.8227 ylo yhi
0.0 20.0000 zlo zhi

Atoms  # atomic

1 1 -4.9354492339 -2.8494819543 6.5137785
2 1 -6.16931 -2.137112 6.5137785
3 1 -6.1693112339 -0.7123699543 6.5137785
4 1 -2.4677252339 -2.8494819543 6.5137785
5 1 -3.701586 -2.137112 6.5137785
6 1 -3.7015872339 -0.7123699543 6.5137785
7 1 -4.935448 0.0 6.5137785
8 1 -4.9354492339 1.4247420457 6.5137785
9 1 -6.16931 2.137112 6.5137785
10 1 -6.1693112339 3.5618540457 6.5137785
11 1 -1.233862e-06 -2.8494819543 6.5137785
12 1 -1.233862 -2.137112 6.5137785
13 1 -1.2338632339 -0.7123699543 6.5137785
14 1 -2.467724 0.0 6.5137785
15 1 -2.4677252339 1.4247420457 6.5137785
16 1 -3.701586 2.137112 6.5137785
17 1 -3.7015872339 3.5618540457 6.5137785
18 1 -4.935448 4.274224 6.5137785
19 1 -4.9354492339 5.6989660457 6.5137785
20 1 -6.16931 6.411336 6.5137785
21 1 -6.1693112339 7.8360780457 6.5137785
22 1 2.4677227661 -2.8494819543 6.5137785
23 1 1.233862 -2.137112 6.5137785
24 1 1.2338607661 -0.7123699543 6.5137785
25 1 0.0 0.0 6.5137785
26 1 -1.233862e-06 1.4247420457 6.5137785
27 1 -1.233862 2.137112 6.5137785
28 1 -1.2338632339 3.5618540457 6.5137785
29 1 -2.467724 4.274224 6.5137785
30 1 -2.4677252339 5.6989660457 6.5137785
31 1 -3.701586 6.411336 6.5137785
32 1 -3.7015872339 7.8360780457 6.5137785
33 1 -4.935448 8.548448 6.5137785
34 1 4.9354467661 -2.8494819543 6.5137785
35 1 3.701586 -2.137112 6.5137785
36 1 3.7015847661 -0.7123699543 6.5137785
37 1 2.467724 0.0 6.5137785
38 1 2.4677227661 1.4247420457 6.5137785
39 1 1.233862 2.137112 6.5137785
40 1 1.2338607661 3.5618540457 6.5137785
41 1 0.0 4.274224 6.5137785
42 1 -1.233862e-06 5.6989660457 6.5137785
43 1 -1.233862 6.411336 6.5137785
44 1 -1.2338632339 7.8360780457 6.5137785
45 1 -2.467724 8.548448 6.5137785
46 1 4.935448 0.0 6.5137785
47 1 4.9354467661 1.4247420457 6.5137785
48 1 3.701586 2.137112 6.5137785
49 1 3.7015847661 3.5618540457 6.5137785
50 1 2.467724 4.274224 6.5137785
51 1 2.4677227661 5.6989660457 6.5137785
52 1 1.233862 6.411336 6.5137785
53 1 1.2338607661 7.8360780457 6.5137785
54 1 0.0 8.548448 6.5137785
55 1 4.935448 4.274224 6.5137785
56 1 4.9354467661 5.6989660457 6.5137785
57 1 3.701586 6.411336 6.5137785
58 1 3.7015847661 7.8360780457 6.5137785
59 1 2.467724 8.548448 6.5137785
60 1 4.935448 8.548448 6.5137785
