# LAMMPS data file written by OVITO
36 atoms
2 atom types
-23.9678985 26.0321015 xlo xhi
-23.7792825 26.2207175 ylo yhi
-25.04499 24.95501 zlo zhi

Atoms # atomic

1 1 2.311703 1.649614 -0.611926
2 1 1.921878 2.101481 0.7360737
3 1 1.415945 0.7653229 -1.381075
4 1 0.1355783 0.3238949 -0.7956088
5 1 -0.2533052 0.7727794 0.5542573
6 1 0.6348285 1.670418 1.315671
7 1 -0.6820653 -0.488059 -1.497382
8 1 1.766715 0.3583652 -2.618362
9 1 0.8770234 -0.5352288 -3.375745
10 1 -0.2870948 -0.940331 -2.840118
11 1 -1.961706 -0.9201717 -0.9155889
12 1 -2.313298 -0.5170763 0.3175291
13 1 -1.424206 0.3663067 1.088969
14 1 3.48474 2.049911 -1.145849
15 1 3.864637 1.602455 -2.495409
16 1 3.044573 0.8010603 -3.197573
17 1 4.375339 2.933167 -0.3754127
18 1 4.020216 3.344564 0.8542758
19 1 2.739036 2.915 1.436817
20 1 2.335526 3.381674 2.772402
21 1 1.157572 2.997892 3.296716
22 1 0.2698424 2.098785 2.542293
23 1 -1.006829 1.651522 3.123005
24 1 -1.810282 0.8222518 2.433768
25 2 1.148867 -0.8588076 -4.338101
26 2 -0.9167855 -1.581774 -3.385601
27 2 -2.604038 -1.548082 -1.462274
28 2 -3.228606 -0.8325714 0.7274393
29 2 4.776664 1.912488 -2.91687
30 2 3.31885 0.4931841 -4.164152
31 2 5.292809 3.242697 -0.7839928
32 2 4.661854 3.97481 1.397983
33 2 2.963816 4.023209 3.318148
34 2 0.8744798 3.342476 4.248121
35 2 -1.291857 1.973434 4.081936
36 2 -2.718358 0.5044625 2.857536
